2
Lattice="10.0 0.0 0.0 0.0 10.0 0.0 0.0 0.0 10.0" Properties=species:S:1:pos:R:3:forces:R:3 spacegroup="_JSON {\"number\": 1, \"setting\": 1}" unit_cell=conventional occupancy="_JSON {\"0\": {\"H\": 1.0}, \"1\": {\"H\": 1.0}}" energy=-5.451650639454234 free_energy=-5.451650639454234 pbc="T T T"
H        4.57861407       5.42070000       4.50970000      -0.04678520       0.00000000       0.00000000
H        5.36778593       5.42070000       4.50970000       0.04678520       0.00000000       0.00000000
