3
Lattice="10.0 0.0 0.0 0.0 10.0 0.0 0.0 0.0 10.0" Properties=species:S:1:pos:R:3:forces:R:3 spacegroup="_JSON {\"number\": 1, \"setting\": 1}" unit_cell=conventional occupancy="_JSON {\"0\": {\"O\": 1.0}, \"1\": {\"H\": 1.0}, \"2\": {\"H\": 1.0}}" energy=-13.83579219226985 free_energy=-13.83579219226985 pbc="T T T"
O        4.60445041       5.39232778       4.48132778       0.01294598      -0.00590388      -0.00590388
H        3.92273459       5.88900990       4.97800990      -0.01971674      -0.00313672      -0.00313672
H        5.46741500       5.72076232       4.80976232       0.00677076       0.00904060       0.00904060
