3
Lattice="10.0 0.0 0.0 0.0 10.0 0.0 0.0 0.0 10.0" Properties=species:S:1:pos:R:3:forces:R:3 spacegroup="_JSON {\"number\": 1, \"setting\": 1}" unit_cell=conventional occupancy="_JSON {\"0\": {\"O\": 1.0}, \"1\": {\"H\": 1.0}, \"2\": {\"H\": 1.0}}" energy=-13.204800010056733 free_energy=-13.204800010056733 pbc="T T T"
O        4.41820000       5.42070000       4.50970000       1.86916887       1.72914662       1.72914662
H        4.04820000       6.16070000       5.24970000       1.62841102      -2.11724342      -2.11724342
H        5.52820000       5.42070000       4.50970000      -3.49757989       0.38809680       0.38809680
3
Lattice="10.0 0.0 0.0 0.0 10.0 0.0 0.0 0.0 10.0" Properties=species:S:1:pos:R:3:forces:R:3 spacegroup="_JSON {\"number\": 1, \"setting\": 1}" unit_cell=conventional occupancy="_JSON {\"0\": {\"O\": 1.0}, \"1\": {\"H\": 1.0}, \"2\": {\"H\": 1.0}}" energy=-13.583952714187422 free_energy=-13.583952714187422 pbc="T T T"
O        4.44490241       5.44540209       4.53440209       0.73656040       0.72046480       0.72046480
H        4.07146301       6.13045367       5.21945367       1.25973199      -1.16223367      -1.16223367
H        5.47823457       5.42624424       4.51524424      -1.99629239       0.44176887       0.44176887
3
Lattice="10.0 0.0 0.0 0.0 10.0 0.0 0.0 0.0 10.0" Properties=species:S:1:pos:R:3:forces:R:3 spacegroup="_JSON {\"number\": 1, \"setting\": 1}" unit_cell=conventional occupancy="_JSON {\"0\": {\"O\": 1.0}, \"1\": {\"H\": 1.0}, \"2\": {\"H\": 1.0}}" energy=-13.72143103711152 free_energy=-13.72143103711152 pbc="T T T"
O        4.46940612       5.46928458       4.55828458      -1.71053624      -1.24738711      -1.24738711
H        4.11201521       6.09250836       5.18150836       0.32239739       0.73530998       0.73530998
H        5.41317867       5.44030706       4.52930706       1.38813885       0.51207713       0.51207713
3
Lattice="10.0 0.0 0.0 0.0 10.0 0.0 0.0 0.0 10.0" Properties=species:S:1:pos:R:3:forces:R:3 spacegroup="_JSON {\"number\": 1, \"setting\": 1}" unit_cell=conventional occupancy="_JSON {\"0\": {\"O\": 1.0}, \"1\": {\"H\": 1.0}, \"2\": {\"H\": 1.0}}" energy=-13.775991707218529 free_energy=-13.775991707218529 pbc="T T T"
O        4.45144870       5.45533604       4.54433604      -0.29086554      -0.31901379      -0.31901379
H        4.10848209       6.10435194       5.19335194       0.66040045      -0.13441278      -0.13441278
H        5.43466921       5.44241202       4.53141202      -0.36953491       0.45342657       0.45342657
3
Lattice="10.0 0.0 0.0 0.0 10.0 0.0 0.0 0.0 10.0" Properties=species:S:1:pos:R:3:forces:R:3 spacegroup="_JSON {\"number\": 1, \"setting\": 1}" unit_cell=conventional occupancy="_JSON {\"0\": {\"O\": 1.0}, \"1\": {\"H\": 1.0}, \"2\": {\"H\": 1.0}}" energy=-13.797970951480218 free_energy=-13.797970951480218 pbc="T T T"
O        4.44407032       5.44895709       4.53795709      -0.06897621      -0.23205172      -0.23205172
H        4.12223764       6.10149409       5.19049409       0.38050194      -0.06417073      -0.06417073
H        5.42829204       5.45164882       4.54064882      -0.31152573       0.29622245       0.29622245
3
Lattice="10.0 0.0 0.0 0.0 10.0 0.0 0.0 0.0 10.0" Properties=species:S:1:pos:R:3:forces:R:3 spacegroup="_JSON {\"number\": 1, \"setting\": 1}" unit_cell=conventional occupancy="_JSON {\"0\": {\"O\": 1.0}, \"1\": {\"H\": 1.0}, \"2\": {\"H\": 1.0}}" energy=-13.80689857887792 free_energy=-13.80689857887792 pbc="T T T"
O        4.43554608       5.43682532       4.52582532       0.00336945       0.02104119       0.02104119
H        4.14419095       6.09755977       5.18655977      -0.26845703       0.05543858       0.05543858
H        5.41486296       5.46771490       4.55671490       0.26508758      -0.07647977      -0.07647977
3
Lattice="10.0 0.0 0.0 0.0 10.0 0.0 0.0 0.0 10.0" Properties=species:S:1:pos:R:3:forces:R:3 spacegroup="_JSON {\"number\": 1, \"setting\": 1}" unit_cell=conventional occupancy="_JSON {\"0\": {\"O\": 1.0}, \"1\": {\"H\": 1.0}, \"2\": {\"H\": 1.0}}" energy=-13.808879246767678 free_energy=-13.808879246767678 pbc="T T T"
O        4.43792138       5.43959637       4.52859637       0.01214882      -0.00435666      -0.00435666
H        4.13668365       6.09899704       5.18799704      -0.02247549      -0.04294436      -0.04294436
H        5.41999497       5.46350659       4.55250659       0.01032668       0.04730102       0.04730102
3
Lattice="10.0 0.0 0.0 0.0 10.0 0.0 0.0 0.0 10.0" Properties=species:S:1:pos:R:3:forces:R:3 spacegroup="_JSON {\"number\": 1, \"setting\": 1}" unit_cell=conventional occupancy="_JSON {\"0\": {\"O\": 1.0}, \"1\": {\"H\": 1.0}, \"2\": {\"H\": 1.0}}" energy=-13.809003379176149 free_energy=-13.809003379176149 pbc="T T T"
O        4.43791009       5.43934794       4.52834794       0.02936464      -0.01235398      -0.01235398
H        4.13659069       6.09838820       5.18738820      -0.04280517      -0.02635671      -0.02635671
H        5.42009922       5.46436386       4.55336386       0.01344053       0.03871069       0.03871069
3
Lattice="10.0 0.0 0.0 0.0 10.0 0.0 0.0 0.0 10.0" Properties=species:S:1:pos:R:3:forces:R:3 spacegroup="_JSON {\"number\": 1, \"setting\": 1}" unit_cell=conventional occupancy="_JSON {\"0\": {\"O\": 1.0}, \"1\": {\"H\": 1.0}, \"2\": {\"H\": 1.0}}" energy=-13.809759683985158 free_energy=-13.809759683985158 pbc="T T T"
O        4.43963847       5.43727633       4.52627633       0.08236015      -0.02977950      -0.02977950
H        4.13320284       6.09419820       5.18319820      -0.12090505       0.02740456       0.02740456
H        5.42175869       5.47062548       4.55962548       0.03854491       0.00237494       0.00237494
3
Lattice="10.0 0.0 0.0 0.0 10.0 0.0 0.0 0.0 10.0" Properties=species:S:1:pos:R:3:forces:R:3 spacegroup="_JSON {\"number\": 1, \"setting\": 1}" unit_cell=conventional occupancy="_JSON {\"0\": {\"O\": 1.0}, \"1\": {\"H\": 1.0}, \"2\": {\"H\": 1.0}}" energy=-13.811301539628346 free_energy=-13.811301539628346 pbc="T T T"
O        4.44552059       5.43292046       4.52192046       0.16114353      -0.04733631      -0.04733631
H        4.12196692       6.08477331       5.17377331      -0.20553764       0.08542746       0.08542746
H        5.42711248       5.48440623       4.57340623       0.04439412      -0.03809115      -0.03809115
3
Lattice="10.0 0.0 0.0 0.0 10.0 0.0 0.0 0.0 10.0" Properties=species:S:1:pos:R:3:forces:R:3 spacegroup="_JSON {\"number\": 1, \"setting\": 1}" unit_cell=conventional occupancy="_JSON {\"0\": {\"O\": 1.0}, \"1\": {\"H\": 1.0}, \"2\": {\"H\": 1.0}}" energy=-13.81604207508073 free_energy=-13.81604207508073 pbc="T T T"
O        4.46862037       5.41908690       4.50808690       0.37880745       0.01768256       0.01768256
H        4.07961829       6.05365358       5.14265358      -0.25245126       0.07715714       0.07715714
H        5.44636133       5.52935953       4.61835953      -0.12635619      -0.09483969      -0.09483969
3
Lattice="10.0 0.0 0.0 0.0 10.0 0.0 0.0 0.0 10.0" Properties=species:S:1:pos:R:3:forces:R:3 spacegroup="_JSON {\"number\": 1, \"setting\": 1}" unit_cell=conventional occupancy="_JSON {\"0\": {\"O\": 1.0}, \"1\": {\"H\": 1.0}, \"2\": {\"H\": 1.0}}" energy=-13.799164008002846 free_energy=-13.799164008002846 pbc="T T T"
O        4.52995940       5.39041262       4.47941262       0.71059267       0.61242072       0.61242072
H        3.97605086       5.97931831       5.06831831       0.50128698      -0.40721700      -0.40721700
H        5.48858973       5.63236907       4.72136907      -1.21187966      -0.20520372      -0.20520372
3
Lattice="10.0 0.0 0.0 0.0 10.0 0.0 0.0 0.0 10.0" Properties=species:S:1:pos:R:3:forces:R:3 spacegroup="_JSON {\"number\": 1, \"setting\": 1}" unit_cell=conventional occupancy="_JSON {\"0\": {\"O\": 1.0}, \"1\": {\"H\": 1.0}, \"2\": {\"H\": 1.0}}" energy=-13.820409944751301 free_energy=-13.820409944751301 pbc="T T T"
O        4.48455974       5.41578093       4.50478093       0.21125779       0.01365438       0.01365438
H        4.05715891       6.03846945       5.12746945      -0.15577639       0.03136613       0.03136613
H        5.45288135       5.54784962       4.63684962      -0.05548140      -0.04502051      -0.04502051
3
Lattice="10.0 0.0 0.0 0.0 10.0 0.0 0.0 0.0 10.0" Properties=species:S:1:pos:R:3:forces:R:3 spacegroup="_JSON {\"number\": 1, \"setting\": 1}" unit_cell=conventional occupancy="_JSON {\"0\": {\"O\": 1.0}, \"1\": {\"H\": 1.0}, \"2\": {\"H\": 1.0}}" energy=-13.822767321891725 free_energy=-13.822767321891725 pbc="T T T"
O        4.49587947       5.41321715       4.50221715       0.12714013       0.02360626       0.02360626
H        4.04088199       6.02691096       5.11591096      -0.07160138      -0.01079983      -0.01079983
H        5.45783854       5.56197189       4.65097189      -0.05553875      -0.01280643      -0.01280643
3
Lattice="10.0 0.0 0.0 0.0 10.0 0.0 0.0 0.0 10.0" Properties=species:S:1:pos:R:3:forces:R:3 spacegroup="_JSON {\"number\": 1, \"setting\": 1}" unit_cell=conventional occupancy="_JSON {\"0\": {\"O\": 1.0}, \"1\": {\"H\": 1.0}, \"2\": {\"H\": 1.0}}" energy=-13.81506223668183 free_energy=-13.81506223668183 pbc="T T T"
O        4.55835671       5.39701584       4.48601584      -0.15200240       0.38240029       0.38240029
H        3.95050107       5.95937087       5.04837087       0.78812250      -0.43465615      -0.43465615
H        5.48574222       5.64571329       4.73471329      -0.63612010       0.05225586       0.05225586
3
Lattice="10.0 0.0 0.0 0.0 10.0 0.0 0.0 0.0 10.0" Properties=species:S:1:pos:R:3:forces:R:3 spacegroup="_JSON {\"number\": 1, \"setting\": 1}" unit_cell=conventional occupancy="_JSON {\"0\": {\"O\": 1.0}, \"1\": {\"H\": 1.0}, \"2\": {\"H\": 1.0}}" energy=-13.825315157047513 free_energy=-13.825315157047513 pbc="T T T"
O        4.51208049       5.41027223       4.49927223      -0.01027479       0.01347273       0.01347273
H        4.01918666       6.00985271       5.09885271       0.02686205      -0.04700389      -0.04700389
H        5.46333284       5.58197506       4.67097506      -0.01658726       0.03353115       0.03353115
3
Lattice="10.0 0.0 0.0 0.0 10.0 0.0 0.0 0.0 10.0" Properties=species:S:1:pos:R:3:forces:R:3 spacegroup="_JSON {\"number\": 1, \"setting\": 1}" unit_cell=conventional occupancy="_JSON {\"0\": {\"O\": 1.0}, \"1\": {\"H\": 1.0}, \"2\": {\"H\": 1.0}}" energy=-13.826456758134093 free_energy=-13.826456758134093 pbc="T T T"
O        4.52107066       5.40799382       4.49699382      -0.03928065       0.03327344       0.03327344
H        4.00683085       5.99952929       5.08852929       0.08982636      -0.07864234      -0.07864234
H        5.46669849       5.59457688       4.68357688      -0.05054571       0.04536890       0.04536890
3
Lattice="10.0 0.0 0.0 0.0 10.0 0.0 0.0 0.0 10.0" Properties=species:S:1:pos:R:3:forces:R:3 spacegroup="_JSON {\"number\": 1, \"setting\": 1}" unit_cell=conventional occupancy="_JSON {\"0\": {\"O\": 1.0}, \"1\": {\"H\": 1.0}, \"2\": {\"H\": 1.0}}" energy=-13.826014293670244 free_energy=-13.826014293670244 pbc="T T T"
O        4.55844714       5.39796443       4.48696443      -0.07812088       0.22557365       0.22557365
H        3.95649800       5.95501531       5.04401531       0.47969837      -0.26447563      -0.26447563
H        5.47965486       5.64912025       4.73812025      -0.40157749       0.03890198       0.03890198
3
Lattice="10.0 0.0 0.0 0.0 10.0 0.0 0.0 0.0 10.0" Properties=species:S:1:pos:R:3:forces:R:3 spacegroup="_JSON {\"number\": 1, \"setting\": 1}" unit_cell=conventional occupancy="_JSON {\"0\": {\"O\": 1.0}, \"1\": {\"H\": 1.0}, \"2\": {\"H\": 1.0}}" energy=-13.828384107867294 free_energy=-13.828384107867294 pbc="T T T"
O        4.53694549       5.40398204       4.49298204      -0.06143115       0.05717105       0.05717105
H        3.98662181       5.98009148       5.06909148       0.15271976      -0.10609855      -0.10609855
H        5.47103271       5.61802649       4.70702649      -0.09128861       0.04892750       0.04892750
3
Lattice="10.0 0.0 0.0 0.0 10.0 0.0 0.0 0.0 10.0" Properties=species:S:1:pos:R:3:forces:R:3 spacegroup="_JSON {\"number\": 1, \"setting\": 1}" unit_cell=conventional occupancy="_JSON {\"0\": {\"O\": 1.0}, \"1\": {\"H\": 1.0}, \"2\": {\"H\": 1.0}}" energy=-13.82918115313129 free_energy=-13.82918115313129 pbc="T T T"
O        4.54294526       5.40246731       4.49146731      -0.05510653       0.06176476       0.06176476
H        3.97954848       5.97227430       5.06127430       0.15684333      -0.10581763      -0.10581763
H        5.47210626       5.62735839       4.71635839      -0.10173680       0.04405287       0.04405287
3
Lattice="10.0 0.0 0.0 0.0 10.0 0.0 0.0 0.0 10.0" Properties=species:S:1:pos:R:3:forces:R:3 spacegroup="_JSON {\"number\": 1, \"setting\": 1}" unit_cell=conventional occupancy="_JSON {\"0\": {\"O\": 1.0}, \"1\": {\"H\": 1.0}, \"2\": {\"H\": 1.0}}" energy=-13.830849896803095 free_energy=-13.830849896803095 pbc="T T T"
O        4.58410905       5.39244396       4.48144396       0.05269540       0.20919053       0.20919053
H        3.93295675       5.91777762       5.00677762       0.34517131      -0.17514047      -0.17514047
H        5.47753420       5.69187842       4.78087842      -0.39786671      -0.03405006      -0.03405006
3
Lattice="10.0 0.0 0.0 0.0 10.0 0.0 0.0 0.0 10.0" Properties=species:S:1:pos:R:3:forces:R:3 spacegroup="_JSON {\"number\": 1, \"setting\": 1}" unit_cell=conventional occupancy="_JSON {\"0\": {\"O\": 1.0}, \"1\": {\"H\": 1.0}, \"2\": {\"H\": 1.0}}" energy=-13.832891789605988 free_energy=-13.832891789605988 pbc="T T T"
O        4.57036375       5.39649151       4.48549151       0.01936991       0.04176498       0.04176498
H        3.95153414       5.93471158       5.02371158       0.06206930      -0.04955010      -0.04955010
H        5.47270211       5.67089691       4.75989691      -0.08143921       0.00778512       0.00778512
3
Lattice="10.0 0.0 0.0 0.0 10.0 0.0 0.0 0.0 10.0" Properties=species:S:1:pos:R:3:forces:R:3 spacegroup="_JSON {\"number\": 1, \"setting\": 1}" unit_cell=conventional occupancy="_JSON {\"0\": {\"O\": 1.0}, \"1\": {\"H\": 1.0}, \"2\": {\"H\": 1.0}}" energy=-13.833975004458551 free_energy=-13.833975004458551 pbc="T T T"
O        4.58102991       5.39478035       4.48378035       0.03262307       0.03160359       0.03160359
H        3.94182516       5.92026435       5.00926435       0.03206158      -0.03256188      -0.03256188
H        5.47174493       5.68705531       4.77605531      -0.06468465       0.00095829       0.00095829
3
Lattice="10.0 0.0 0.0 0.0 10.0 0.0 0.0 0.0 10.0" Properties=species:S:1:pos:R:3:forces:R:3 spacegroup="_JSON {\"number\": 1, \"setting\": 1}" unit_cell=conventional occupancy="_JSON {\"0\": {\"O\": 1.0}, \"1\": {\"H\": 1.0}, \"2\": {\"H\": 1.0}}" energy=-13.834131318303264 free_energy=-13.834131318303264 pbc="T T T"
O        4.62458159       5.38823774       4.47723774       0.05097411       0.19335856       0.19335856
H        3.90142603       5.86268398       4.95168398       0.31241520      -0.12137052      -0.12137052
H        5.46859238       5.75117828       4.84017828      -0.36338931      -0.07198804      -0.07198804
3
Lattice="10.0 0.0 0.0 0.0 10.0 0.0 0.0 0.0 10.0" Properties=species:S:1:pos:R:3:forces:R:3 spacegroup="_JSON {\"number\": 1, \"setting\": 1}" unit_cell=conventional occupancy="_JSON {\"0\": {\"O\": 1.0}, \"1\": {\"H\": 1.0}, \"2\": {\"H\": 1.0}}" energy=-13.83579219226985 free_energy=-13.83579219226985 pbc="T T T"
O        4.60445041       5.39232778       4.48132778       0.01294598      -0.00590388      -0.00590388
H        3.92273459       5.88900990       4.97800990      -0.01971674      -0.00313672      -0.00313672
H        5.46741500       5.72076232       4.80976232       0.00677076       0.00904060       0.00904060
